data_FINAL_symm_form_of_OK_inverted_p2_like
_audit_creation_method         'generated by CrystalMaker 9.2.1'
_publ_section_comment
;
(Imported from a Crystallographic Information File (CIF) file.)
ICSD code: 38401


Systematic name: Molybdenum(IV) sulfide

Structural formula: Mo S2

Chemical formula (sum): Mo1 S2


Crystal structure data from: Takeuchi, Y., Nowacki, W.  Detailed crystal 
structure of rhombohedral Mo S2 and systematic deduction of possible polytypes 
of molybdenite. 

;
_cell_length_a                   8.5530(0)
_cell_length_b                   4.9370(0)
_cell_length_c                  15.2630(0)
_cell_angle_alpha               90.0000(0)
_cell_angle_beta                90.0000(0)
_cell_angle_gamma               90.0000(0)

_symmetry_space_group_name_H-M     'P 1'
_symmetry_Int_Tables_number         1
_symmetry_cell_setting             triclinic
loop_
_symmetry_equiv_pos_as_xyz
'+x,+y,+z'

loop_
_atom_site_label
_atom_site_type_symbol
_atom_site_occupancy
_atom_site_fract_x
_atom_site_fract_y
_atom_site_fract_z
    Mn    Li 1.0000      0.0000    0.0000    0.0000
    Mn    Li 1.0000      0.6667    0.3333    0.3333
    Mn    Li 1.0000      0.8333    0.1667    0.6667
    Mn    Li 1.0000      0.3333    0.6667    0.6667
    Mn    Li 1.0000      0.5000    0.5000    0.0000
    Mn    Li 1.0000      0.1667    0.8333    0.3333
    Mn    Mn 1.0000      0.6667    0.6667    0.6667
    Mn    Mn 1.0000      0.3333    0.3333    0.3333
    Mn    Mn 1.0000      0.0000    0.3333    0.3333
    Mn    Mn 1.0000      0.1667    0.5000    0.0000
    Mn    Mn 1.0000      0.0000    0.6667    0.6667
    Mn    Mn 1.0000      0.8333    0.5000    0.0000
    Mn    Mn 1.0000      0.1667    0.1667    0.6667
    Mn    Mn 1.0000      0.5000    0.1667    0.6667
    Mn    Mn 1.0000      0.3333    0.0000    0.0000
    Mn    Mn 1.0000      0.6667    0.0000    0.0000
    Mn    Mn 1.0000      0.5000    0.8333    0.3333
    Mn    Mn 1.0000      0.8333    0.8333    0.3333
    O1     O 1.0000      0.0000    0.6667    0.2200
    O1     O 1.0000      0.3333    0.6667    0.2200
    O1     O 1.0000      0.6667    0.6667    0.2200
    O1     O 1.0000      0.1667    0.1667    0.2200
    O1     O 1.0000      0.5000    0.1667    0.2200
    O1     O 1.0000      0.8333    0.1667    0.2200
    O1     O 1.0000      0.0000    0.0000    0.5530
    O1     O 1.0000      0.3333    0.0000    0.5530
    O1     O 1.0000      0.6667    0.0000    0.5530
    O1     O 1.0000      0.1667    0.5000    0.5530
    O1     O 1.0000      0.5000    0.5000    0.5530
    O1     O 1.0000      0.8333    0.5000    0.5530
    O1     O 1.0000      0.1667    0.8333    0.8860
    O1     O 1.0000      0.5000    0.8333    0.8860
    O1     O 1.0000      0.8333    0.8333    0.8860
    O1     O 1.0000      0.0000    0.3330    0.8860
    O1     O 1.0000      0.3333    0.3330    0.8860
    O1     O 1.0000      0.6667    0.3330    0.8860
    O2     O 1.0000      0.0000    0.0000    0.7830
    O2     O 1.0000      0.3333    0.0000    0.7830
    O2     O 1.0000      0.6667    0.0000    0.7830
    O2     O 1.0000      0.1667    0.5000    0.7830
    O2     O 1.0000      0.5000    0.5000    0.7830
    O2     O 1.0000      0.8333    0.5000    0.7830
    O2     O 1.0000      0.0000    0.3330    0.1160
    O2     O 1.0000      0.3333    0.3330    0.1160
    O2     O 1.0000      0.6667    0.3330    0.1160
    O2     O 1.0000      0.1667    0.8333    0.1160
    O2     O 1.0000      0.5000    0.8333    0.1160
    O2     O 1.0000      0.8333    0.8333    0.1160
    O2     O 1.0000      0.0000    0.6667    0.4490
    O2     O 1.0000      0.3333    0.6667    0.4490
    O2     O 1.0000      0.6667    0.6667    0.4490
    O2     O 1.0000      0.1667    0.1667    0.4490
    O2     O 1.0000      0.5000    0.1667    0.4490
    O2     O 1.0000      0.8333    0.1667    0.4490

